
                                 *****************
                                 * O   R   C   A *
                                 *****************

                                            #,                                       
                                            ###                                      
                                            ####                                     
                                            #####                                    
                                            ######                                   
                                           ########,                                 
                                     ,,################,,,,,                         
                               ,,#################################,,                 
                          ,,##########################################,,             
                       ,#########################################, ''#####,          
                    ,#############################################,,   '####,        
                  ,##################################################,,,,####,       
                ,###########''''           ''''###############################       
              ,#####''   ,,,,##########,,,,          '''####'''          '####       
            ,##' ,,,,###########################,,,                        '##       
           ' ,,###''''                  '''############,,,                           
         ,,##''                                '''############,,,,        ,,,,,,###''
      ,#''                                            '''#######################'''  
     '                                                          ''''####''''         
             ,#######,   #######,   ,#######,      ##                                
            ,#'     '#,  ##    ##  ,#'     '#,    #''#        ,####,    ,#,          
            ##       ##  ##   ,#'  ##            #'  '#       #'       ,# #          
            ##       ##  #######   ##           ,######,      #####,      #          
            '#,     ,#'  ##    ##  '#,     ,#' ,#      #,     #,   #      #          
             '#######'   ##     ##  '#######'  #'      '#     '####' #    #          



                #########################################################
                #                        -***-                          #
                #          Department of theory and spectroscopy        #
                #                                                       #
                #                      Frank Neese                      #
                #                                                       #
                #     Directorship, Architecture, Infrastructure        #
                #                    SHARK, DRIVERS                     #
                #        Core code/Algorithms in most modules           #
                #                                                       #
                #        Max Planck Institute fuer Kohlenforschung      #
                #                Kaiser Wilhelm Platz 1                 #
                #                 D-45470 Muelheim/Ruhr                 #
                #                      Germany                          #
                #                                                       #
                #                  All rights reserved                  #
                #                        -***-                          #
                #########################################################


                         Program Version 6.1.0  -  RELEASE   -
                                (GIT: $679e74b7b5$)
                          ($2025-06-10 18:02:51 +0200$)


 With contributions from (in alphabetic order):
[Max-Planck-Institut fuer Kohlenforschung]                               
  Daniel Aravena         : Magnetic Suceptibility                        
  Michael Atanasov       : Ab Initio Ligand Field Theory (pilot matlab implementation)
  Alexander A. Auer      : GIAO ZORA, VPT2 properties, NMR spectrum      
  Ute Becker             : All parallelization in ORCA, NUMFREQ, NUMCALC 
  Giovanni Bistoni       : ED, misc. LED, open-shell LED, HFLD           
  Dmytro Bykov           : pre 5.0 version of the SCF Hessian            
  Marcos Casanova-Páez   : Triplet and SCS-CIS(D). UHF-(DLPNO)-IP/EA/STEOM-CCSD. UHF-CVS-IP/STEOM-CCSD   
  Vijay G. Chilkuri      : MRCI spin determinant printing, contributions to CSF-ICE 
  Pauline Colinet        : FMM embedding                                 
  Dipayan Datta          : RHF DLPNO-CCSD density                        
  Achintya Kumar Dutta   : EOM-CC, STEOM-CC                              
  Nicolas Foglia         : Exact transition moments, OPA infrastructure, MCD improvements    
  Dmitry Ganyushin       : Spin-Orbit,Spin-Spin,Magnetic field MRCI      
  Miquel Garcia-Rates    : C-PCM and meta-GGA Hessian, CCSD/C-PCM, Gaussian charge scheme 
  Tiago L. C. Gouveia    : GS-ROHF, GS-ROCIS                             
  Yang Guo               : DLPNO-NEVPT2, F12-NEVPT2, CIM, IAO-localization        
  Andreas Hansen         : Spin unrestricted coupled pair/coupled cluster methods 
  Ingolf Harden          : AUTO-CI MPn and infrastructure                
  Benjamin Helmich-Paris : MC-RPA, TRAH-(SCF,CASSCF), AVAS, COSX integrals, SCF dyn. polar., MC-PDFT, srDFT 
  Lee Huntington         : MR-EOM, pCC                                   
  Robert Izsak           : Overlap fitted RIJCOSX, COSX-SCS-MP3, EOM     
  Riya Kayal             : Wick's Theorem for AUTO-CI, AUTO-CI UHF-CCSDT 
  Emily Kempfer          : AUTO-CI RHF CISDT and CCSDT, approximate NEVPT4
  Christian Kollmar      : KDIIS, OOCD, Brueckner-CCSD(T), CCSD density, CASPT2, CASPT2-K, improved NEVPT2 
  Axel Koslowski         : Symmetry handling                             
  Simone Kossmann        : meta-GGA functionals, TD-DFT gradient, OOMP2, (MP2 Hessian; deprecated post 5.0) 
  Lucas Lang             : DCDCAS, Hyperfine gauge corrections, ICE-SOC+SSC
  Marvin Lechner         : AUTO-CI (C++ implementation), FIC-MRCC        
  Spencer Leger          : CASSCF response                               
  Dagmar Lenk            : GEPOL surface, SMD, ORCA-2-JSON               
  Dimitrios Liakos       : Extrapolation schemes; Compound Job, Property file
  Dimitrios Manganas     : Further ROCIS development; embedding schemes. LFT, Crystal Embedding 
  Dimitrios Pantazis     : SARC Basis sets                               
  Anastasios Papadopoulos: AUTO-CI, single reference methods and gradients 
  Taras Petrenko         : pre 6.0 DFT Hessian and TD-DFT gradient,  ECA, NRVS 
  Petra Pikulova         : Analytic Raman intensities                    
  Peter Pinski           : DLPNO-MP2, DLPNO-MP2 Gradient                 
  Shashank Vittal Rao    : ES-AILFT, MagRelax                            
  Christoph Reimann      : Effective Core Potentials                     
  Marius Retegan         : Local ZFS, SOC                                
  Christoph Riplinger    : Optimizer, TS searches, QM/MM, DLPNO-CCSD(T), (RO)-DLPNO pert. Triples 
  Michael Roemelt        : Original ROCIS implementation, recursive CI coupling coefficients
  Masaaki Saitow         : Open-shell DLPNO-CCSD energy and density      
  Barbara Sandhoefer     : DKH picture change effects                    
  Yorick L. A. Schmerwitz: GMF and freeze-and-release deltaSCF, NEB S-IDPP initial path                    
  Kantharuban Sivalingam : CASSCF convergence/infrastructure, NEVPT2, NEVPT3, NEVPT4(SD), FIC-MRCI and CEPA variants
  Bernardo de Souza      : ESD, SOC TD-DFT                               
  Georgi L. Stoychev     : AutoAux, RI-MP2 NMR, DLPNO-MP2 response, X2C  
  Van Anh Tran           : RI-MP2 g-tensors                              
  Willem Van den Heuvel  : Paramagnetic NMR                              
  Zikuan Wang            : NOTCH, Electric field optimization            
  Frank Wennmohs         : Technical directorship and infrastructure     
  Hang Xu                : AUTO-CI-Response properties                   
                                                                         
[FACCTs GmbH]                                                            
  Markus Bursch, Nicolas Foglia, Miquel Garcia-Rates, Ingolf Harden, Hagen Neugebauer, Anastasios Papadopoulos, 
  Christoph Riplinger, Bernardo de Souza, Georgi L. Stoychev                                                    
                                                                 
  APM, various basis sets, CI-OPT, improved COSX, DLPNO-Multilevel,           
  DOCKER, DRACO, updates on ESD, Fragmentator, GOAT, IRC, LR-CPCM, L-BFGS, MBIS, meta-GGA TD-DFT gradient, ML-optimized integration grids, 
  MM, NACMEs, nearIR, NEB, NEB-TS, NL-DFT gradient (VV10), 2- and 3-layer-ONIOM, interface openCOSMO-RS, QMMM,   
  Crystal-QMMM, RESP, rigid body optimization, SF, symmetry and pop. for TD-DFT, various functionals, SOLVATOR                                   
                                                                         
[Other institutions]                                                     
  V. Asgeirsson          : NEB                                           
  Christoph Bannwarth    : sTDA-DFT, sTD-DFT, PBEh-3c, B97-3c, D3        
  Giovanni Bistoni       : ETS/NOCV, ADLD/ADEX, COVALED                  
  Martin Brehm           : Molecular dynamics                            
  Ronald Cardenas        : ETS/NOCV                                      
  Martina Colucci        : COVALED                                       
  Sebastian Ehlert       : rSCAN, r2SCAN, r2SCAN-3c, D4, dhf basis sets  
  Marvin Friede          : D4 for Fr, Ra, Ac-Lr                          
  Lars Goerigk           : TD-DFT with DH, B97 family of functionals     
  Stefan Grimme          : VdW corrections, initial TS optimization, DFT functionals, gCP, sTDA/sTD-DF 
  Waldemar Hujo          : DFT-NL                                        
  H. Jonsson             : NEB                                           
  Holger Kruse           : gCP                                           
  Marcel Mueller         : wB97X-3c, vDZP basis set                      
  Hagen Neugebauer       : wr2SCAN, Native XTB                           
  Gianluca Regni         : ADLD/ADEX                                     
  Tobias Risthaus        : pre 6.0 range-separated hybrid DFT and stability analysis
  Lukas Wittmann         : regularized MP2, r2SCAN double-hybrids, wr2SCAN        
                                                                         
We gratefully acknowledge several colleagues who have allowed us to      
interface, adapt or use parts of their codes:                            
  Ed Valeev, F. Pavosevic, A. Kumar             : LibInt (2-el integral package), F12 methods 
  Garnet Chan, S. Sharma, J. Yang, R. Olivares  : DMRG                   
  Ulf Ekstrom                                   : XCFun DFT Library      
  Mihaly Kallay                                 : mrcc  (arbitrary order and MRCC methods)
  Frank Weinhold                                : gennbo (NPA and NBO analysis)           
  Simon Mueller                                 : openCOSMO-RS                            
  Christopher J. Cramer and Donald G. Truhlar   : smd solvation model                     
  S Lehtola, MJT Oliveira, MAL Marques          : LibXC Library                           
  Liviu Ungur et al                             : ANISO software                          


 Your calculation uses the libint2 library for the computation of 2-el integrals
 For citations please refer to: http://libint.valeyev.net

 Your ORCA version has been built with support for libXC version: 7.0.0
 For citations please refer to: https://libxc.gitlab.io

 This ORCA versions uses:
   CBLAS   interface :  Fast vector & matrix operations
   LAPACKE interface :  Fast linear algebra routines
   SCALAPACK package :  Parallel linear algebra routines
   Shared memory     :  Shared parallel matrices


  ***********************************
  * Starting time: Sun Mar 22 15:04:46 2026
  * Host name:     MacBook-Pro-2021.local
  * Process ID:    68869
  * Working dir.:  /Users/fevange/Source/vibemol/assets/fragments/fragment_optimization/methyl
  ***********************************

Your calculation utilizes the atom-pairwise dispersion correction
with the Becke-Johnson damping scheme (D3BJ)


================================================================================

----- Orbital basis set information -----
Your calculation utilizes the basis: def2-TZVP
   F. Weigend and R. Ahlrichs, Phys. Chem. Chem. Phys. 7, 3297 (2005).

----- AuxJ basis set information -----
Your calculation utilizes the auxiliary basis: def2/J
   H-Rn: F. Weigend, Phys. Chem. Chem. Phys. 8, 1057 (2006).
   Fr-Lr: K. Eichkorn, F. Weigend, O. Treutler, R. Ahlrichs; Theor. Chem. Acc. 97, 119 (1997).

================================================================================
                                        WARNINGS
                       Please study these warnings very carefully!
================================================================================


WARNING: Geometry Optimization
  ===> : Switching off AutoStart
         For restart on a previous wavefunction, please use MOREAD

================================================================================
                                       INPUT FILE
================================================================================
NAME = methyl.inp
|  1> ! RI BP86 def2-TZVP def2/J D3BJ TIGHTSCF Opt
|  2> 
|  3> * xyz 0 1
|  4> C     -2.284417    1.466079    0.000000
|  5> C     -2.327108   -0.045376    0.000001
|  6> H     -3.181163    1.875933    0.474222
|  7> H     -1.409241    1.825886    0.549206
|  8> H     -2.230290    1.849075   -1.023428
|  9> H     -2.381235   -0.428371    1.023429
| 10> H     -3.202283   -0.405182   -0.549205
| 11> H     -1.430361   -0.455230   -0.474221
| 12> *
| 13> 
| 14>                          ****END OF INPUT****
================================================================================

                       *****************************
                       * Geometry Optimization Run *
                       *****************************

Geometry optimization settings:
Update method            Update   .... BFGS
Choice of coordinates    CoordSys .... (2022) Redundant Internals
Initial Hessian          InHess   .... Almloef's Model
Max. no of cycles        MaxIter  .... 50

Convergence Tolerances:
Energy Change            TolE     ....  5.0000e-06 Eh
Max. Gradient            TolMAXG  ....  3.0000e-04 Eh/bohr
RMS Gradient             TolRMSG  ....  1.0000e-04 Eh/bohr
Max. Displacement        TolMAXD  ....  4.0000e-03 bohr
RMS Displacement         TolRMSD  ....  2.0000e-03 bohr
Strict Convergence                .... False

------------------------------------------------------------------------------
                        ORCA OPTIMIZATION COORDINATE SETUP
------------------------------------------------------------------------------

The optimization will be done in redundant internal coordinates (2022)
Making redundant internal coordinates   ...  (2022 redundants) done
Evaluating the initial hessian          ...  (Almloef) done
Evaluating the coordinates              ...  done
Calculating the B-matrix                .... done
Calculating the G-matrix                .... done
The number of degrees of freedom        ....   25

    -----------------------------------------------------------------
                    Redundant Internal Coordinates


    -----------------------------------------------------------------
         Definition                    Initial Value    Approx d2E/dq
    -----------------------------------------------------------------
      1. B(C   1,C   0)                  1.5121         0.399028   
      2. B(H   2,C   0)                  1.0941         0.354737   
      3. B(H   3,C   0)                  1.0941         0.354737   
      4. B(H   4,C   0)                  1.0941         0.354737   
      5. B(H   5,C   1)                  1.0941         0.354738   
      6. B(H   6,C   1)                  1.0941         0.354738   
      7. B(H   7,C   1)                  1.0941         0.354736   
      8. A(H   2,C   0,H   4)          108.3526         0.289473   
      9. A(C   1,C   0,H   4)          110.5680         0.327046   
     10. A(C   1,C   0,H   2)          110.5680         0.327046   
     11. A(H   3,C   0,H   4)          108.3525         0.289473   
     12. A(H   2,C   0,H   3)          108.3525         0.289473   
     13. A(C   1,C   0,H   3)          110.5680         0.327046   
     14. A(C   0,C   1,H   5)          110.5679         0.327046   
     15. A(H   6,C   1,H   7)          108.3525         0.289473   
     16. A(H   5,C   1,H   7)          108.3526         0.289473   
     17. A(C   0,C   1,H   7)          110.5680         0.327046   
     18. A(H   5,C   1,H   6)          108.3526         0.289473   
     19. A(C   0,C   1,H   6)          110.5680         0.327046   
     20. D(H   5,C   1,C   0,H   3)     60.0000         0.012635   
     21. D(H   5,C   1,C   0,H   4)   -180.0000         0.012635   
     22. D(H   6,C   1,C   0,H   2)     60.0001         0.012635   
     23. D(H   6,C   1,C   0,H   3)   -180.0000         0.012635   
     24. D(H   6,C   1,C   0,H   4)    -60.0000         0.012635   
     25. D(H   5,C   1,C   0,H   2)    -60.0000         0.012635   
    -----------------------------------------------------------------

Number of atoms                         .... 8
Number of degrees of freedom            .... 25


         *************************************************************
         *                GEOMETRY OPTIMIZATION CYCLE   1            *
         *************************************************************
---------------------------------
CARTESIAN COORDINATES (ANGSTROEM)
---------------------------------
  C     -2.284417    1.466079    0.000000
  C     -2.327108   -0.045376    0.000001
  H     -3.181163    1.875933    0.474222
  H     -1.409241    1.825886    0.549206
  H     -2.230290    1.849075   -1.023428
  H     -2.381235   -0.428371    1.023429
  H     -3.202283   -0.405182   -0.549205
  H     -1.430361   -0.455230   -0.474221

----------------------------
CARTESIAN COORDINATES (A.U.)
----------------------------
  NO LB      ZA    FRAG     MASS         X           Y           Z
   0 C     6.0000    0    12.011   -4.316923    2.770488    0.000000
   1 C     6.0000    0    12.011   -4.397597   -0.085748    0.000002
   2 H     1.0000    0     1.008   -6.011527    3.545000    0.896150
   3 H     1.0000    0     1.008   -2.663080    3.450424    1.037849
   4 H     1.0000    0     1.008   -4.214637    3.494245   -1.933999
   5 H     1.0000    0     1.008   -4.499882   -0.809504    1.934001
   6 H     1.0000    0     1.008   -6.051438   -0.765683   -1.037847
   7 H     1.0000    0     1.008   -2.702991   -0.860260   -0.896148

--------------------------------
INTERNAL COORDINATES (ANGSTROEM)
--------------------------------
 C      0   0   0     0.000000000000     0.00000000     0.00000000
 C      1   0   0     1.512057782794     0.00000000     0.00000000
 H      1   2   0     1.094084181001   110.56797153     0.00000000
 H      1   2   3     1.094084703604   110.56800783   119.99995748
 H      1   2   3     1.094084338307   110.56798910   239.99997552
 H      2   1   3     1.094083988247   110.56794007   300.00002606
 H      2   1   3     1.094083574823   110.56797252    60.00007165
 H      2   1   3     1.094085000632   110.56795385   180.00002592

---------------------------
INTERNAL COORDINATES (A.U.)
---------------------------
 C      0   0   0     0.000000000000     0.00000000     0.00000000
 C      1   0   0     2.857375108144     0.00000000     0.00000000
 H      1   2   0     2.067519469547   110.56797153     0.00000000
 H      1   2   3     2.067520457125   110.56800783   119.99995748
 H      1   2   3     2.067519766813   110.56798910   239.99997552
 H      2   1   3     2.067519105295   110.56794007   300.00002606
 H      2   1   3     2.067518324037   110.56797252    60.00007165
 H      2   1   3     2.067521018426   110.56795385   180.00002592

---------------------
BASIS SET INFORMATION
---------------------
There are 2 groups of distinct atoms

 Group   1 Type C   : 11s6p2d1f contracted to 5s3p2d1f pattern {62111/411/11/1}
 Group   2 Type H   : 5s1p contracted to 3s1p pattern {311/1}

Atom   0C    basis set group =>   1
Atom   1C    basis set group =>   1
Atom   2H    basis set group =>   2
Atom   3H    basis set group =>   2
Atom   4H    basis set group =>   2
Atom   5H    basis set group =>   2
Atom   6H    basis set group =>   2
Atom   7H    basis set group =>   2
---------------------------------
AUXILIARY/J BASIS SET INFORMATION
---------------------------------
There are 2 groups of distinct atoms

 Group   1 Type C   : 12s5p4d2f1g contracted to 6s4p3d1f1g pattern {711111/2111/211/2/1}
 Group   2 Type H   : 5s2p1d contracted to 3s1p1d pattern {311/2/1}

Atom   0C    basis set group =>   1
Atom   1C    basis set group =>   1
Atom   2H    basis set group =>   2
Atom   3H    basis set group =>   2
Atom   4H    basis set group =>   2
Atom   5H    basis set group =>   2
Atom   6H    basis set group =>   2
Atom   7H    basis set group =>   2
------------------------------------------------------------------------------
                             ORCA STARTUP CALCULATIONS
                           -- RI-GTO INTEGRALS CHOSEN --
------------------------------------------------------------------------------
------------------------------------------------------------------------------
                   ___                                                        
                  /   \      - P O W E R E D   B Y -                         
                 /     \                                                     
                 |  |  |   _    _      __       _____    __    __             
                 |  |  |  | |  | |    /  \     |  _  \  |  |  /  |          
                  \  \/   | |  | |   /    \    | | | |  |  | /  /          
                 / \  \   | |__| |  /  /\  \   | |_| |  |  |/  /          
                |  |  |   |  __  | /  /__\  \  |    /   |      \           
                |  |  |   | |  | | |   __   |  |    \   |  |\   \          
                \     /   | |  | | |  |  |  |  | |\  \  |  | \   \       
                 \___/    |_|  |_| |__|  |__|  |_| \__\ |__|  \__/        
                                                                              
                      - O R C A' S   B I G   F R I E N D -                    
                                      &                                       
                       - I N T E G R A L  F E E D E R -                       
                                                                              
 v1 FN, 2020, v2 2021, v3 2022-2024                                           
------------------------------------------------------------------------------


----------------------
SHARK INTEGRAL PACKAGE
----------------------

Number of atoms                             ...      8
Number of basis functions                   ...     98
Number of shells                            ...     46
Maximum angular momentum                    ...      3
Integral batch strategy                     ... SHARK/LIBINT Hybrid
RI-J (if used) integral strategy            ... SPLIT-RIJ (Revised 2003 algorithm where possible)
Printlevel                                  ...      1
Contraction scheme used                     ... SEGMENTED contraction
Prescreening option                         ... SCHWARTZ
   Thresh                                   ... 2.500e-11
   Tcut                                     ... 2.500e-12
   Tpresel                                  ... 2.500e-12 
Coulomb Range Separation                    ... NOT USED
Exchange Range Separation                   ... NOT USED
Multipole approximations                    ... NOT USED
Finite Nucleus Model                        ... NOT USED
CABS basis                                  ... NOT available
Auxiliary Coulomb fitting basis             ... AVAILABLE
   # of basis functions in Aux-J            ...    164
   # of shells in Aux-J                     ...     60
   Maximum angular momentum in Aux-J        ...      4
Auxiliary J/K fitting basis                 ... NOT available
Auxiliary Correlation fitting basis         ... NOT available
Auxiliary 'external' fitting basis          ... NOT available

Checking pre-screening integrals            ... done (  0.0 sec) Dimension = 46
   => SHARK Basis and OBASIS are compatible. Storing Pre-screening
Shell pair information
Shell pair cut-off parameter TPreSel        ...   2.5e-12
Total number of shell pairs                 ...      1081
Shell pairs after pre-screening             ...      1080
Total number of primitive shell pairs       ...      2988
Primitive shell pairs kept                  ...      2670
          la=0 lb=0:    405 shell pairs
          la=1 lb=0:    336 shell pairs
          la=1 lb=1:     78 shell pairs
          la=2 lb=0:    112 shell pairs
          la=2 lb=1:     48 shell pairs
          la=2 lb=2:     10 shell pairs
          la=3 lb=0:     56 shell pairs
          la=3 lb=1:     24 shell pairs
          la=3 lb=2:      8 shell pairs
          la=3 lb=3:      3 shell pairs

Checking whether 4 symmetric matrices of dimension 98 fit in memory
:Max Core in MB      =   4096.00
 MB in use           =      4.27
 MB left             =   4091.73
 MB needed           =      0.15
 Data fit in memory  = YES
Calculating RI/J V-Matrix + Cholesky decomp.... done (  0.0 sec)
Calculating Nuclear repulsion               ... done (  0.0 sec) ENN=     42.426878810009 Eh

Diagonalization of the overlap matrix:
Smallest eigenvalue                        ... 5.291e-04
Time for diagonalization                   ...    0.006 sec
Threshold for overlap eigenvalues          ... 1.000e-07
Number of eigenvalues below threshold      ... 0
Time for construction of square roots      ...    0.000 sec
Total time needed                          ...    0.007 sec

-------------------
DFT GRID GENERATION
-------------------

General Integration Accuracy     IntAcc      ... 4.388
Radial Grid Type                 RadialGrid  ... OptM3 with GC (2021)
Angular Grid (max. ang.)         AngularGrid ... 4 (Lebedev-302)
Angular grid pruning method      GridPruning ... 4 (adaptive)
Weight generation scheme         WeightScheme... mBecke (2022)
Basis function cutoff            BFCut       ... 1.0000e-11
Integration weight cutoff        WCut        ... 1.0000e-14
Partially contracted basis set               ... off
Rotationally invariant grid construction     ... off
Angular grids for H and He will be reduced by one unit

Total number of grid points                  ...    31670
Total number of batches                      ...      498
Average number of points per batch           ...       63
Average number of grid points per atom       ...     3959
Grids setup in   0.1 sec
Initializing property integral containers    ... done (  0.0 sec)

SHARK setup successfully completed in   0.2 seconds

Maximum memory used throughout the entire STARTUP-calculation: 14.7 MB
-------------------------------------------------------------------------------
                                 ORCA GUESS
                   Start orbitals & Density for SCF / CASSCF
-------------------------------------------------------------------------------

------------
SCF SETTINGS
------------
Hamiltonian:
 Density Functional     Method          .... DFT(GTOs)
 Exchange Functional    Exchange        .... B88
   X-Alpha parameter    XAlpha          ....  0.666667
   Becke's b parameter  XBeta           ....  0.004200
 Correlation Functional Correlation     .... P86
 LDA part of GGA corr.  LDAOpt          .... PW91-LDA
 Gradients option       PostSCFGGA      .... off
   NL short-range parameter             ....  4.400000
 RI-approximation to the Coulomb term is turned on
   Number of AuxJ basis functions       .... 164


General Settings:
 Integral files         IntName         .... methyl
 Hartree-Fock type      HFTyp           .... RHF
 Total Charge           Charge          ....    0
 Multiplicity           Mult            ....    1
 Number of Electrons    NEL             ....   18
 Basis Dimension        Dim             ....   98
 Nuclear Repulsion      ENuc            ....     42.4268788100 Eh

Convergence Acceleration:
 AO-DIIS                CNVDIIS         .... on
   Start iteration      DIISMaxIt       ....    12
   Startup error        DIISStart       ....  0.200000
   # of expansion vecs  DIISMaxEq       ....     5
   Bias factor          DIISBfac        ....   1.050
   Max. coefficient     DIISMaxC        ....  10.000
 MO-DIIS                CNVKDIIS        .... off
 Trust-Rad. Augm. Hess. CNVTRAH         .... auto
   Auto Start mean grad. ratio tolernc. ....  1.125000
   Auto Start start iteration           ....    50
   Auto Start num. interpolation iter.  ....    10
   Max. Number of Micro iterations      ....    24
   Max. Number of Macro iterations      .... Maxiter - #DIIS iter
   Number of Davidson start vectors     ....     2
   Converg. threshold    (grad. norm)   ....   1.000e-05
   Grad. Scal. Fac. for Micro threshold ....   0.100
   Minimum threshold for Micro iter.    ....   1.000e-02
   NR start threshold (gradient norm)   ....   1.000e-04
   Initial trust radius                 ....   0.400
   Minimum AH scaling param. (alpha)    ....   1.000
   Maximum AH scaling param. (alpha)    .... 1000.000
   Quad. conv. algorithm                .... NR
   White noise on init. David. guess    .... on
   Maximum white noise                  ....   0.010
   Pseudo random numbers                .... off
   Inactive MOs                         .... canonical
   Orbital update algorithm             .... Taylor
   Preconditioner                       .... Diag
   Full preconditioner red. dimension   ....   250
 SOSCF                 CNVSOSCF           .... on
   Start iteration     SOSCFMaxIt         ....   150
   Startup grad/error  SOSCFStart         ....  0.003300
   Hessian update      SOSCFHessUp        .... L-BFGS
   Autom. constraints  SOSCFAutoConstrain .... off
 Level Shifting         CNVShift        .... on
   Level shift para.    LevelShift      ....    0.2500
   Turn off err/grad.   ShiftErr        ....    0.0010
 Zerner damping         CNVZerner       .... off
 Static damping         CNVDamp         .... on
   Fraction old density DampFac         ....    0.7000
   Max. Damping (<1)    DampMax         ....    0.9800
   Min. Damping (>=0)   DampMin         ....    0.0000
   Turn off err/grad.   DampErr         ....    0.1000

SCF Procedure:
 Maximum # iterations   MaxIter         ....   125
 SCF integral mode      SCFMode         .... Direct
   Integral package                     .... SHARK and LIBINT hybrid scheme
 Reset frequency        DirectResetFreq ....    20
 Integral Threshold     Thresh          ....  2.500e-11 Eh
 Primitive CutOff       TCut            ....  2.500e-12 Eh

Convergence Tolerance:
 Convergence Check Mode ConvCheckMode   .... Total+1el-Energy
 Convergence forced     ConvForced      .... 0
 Energy Change          TolE            ....  1.000e-08 Eh
 1-El. energy change                    ....  1.000e-05 Eh
 Orbital Gradient       TolG            ....  1.000e-05
 Orbital Rotation angle TolX            ....  1.000e-05
 DIIS Error             TolErr          ....  5.000e-07

------------------------------
INITIAL GUESS: MODEL POTENTIAL
------------------------------
Loading Hartree-Fock densities                     ... done
Calculating cut-offs                               ... done
Initializing the effective Hamiltonian             ... done
Setting up the integral package (SHARK)            ... done
Starting the Coulomb interaction                   ... done (   0.0 sec)
Making the grid                                    ... done (   0.0 sec)
Mapping shells                                     ... done
Starting the XC term evaluation                    ... done (   0.0 sec)
  promolecular density results
     # of electrons  =     17.996380067
     EX              =    -12.049226736
     EC              =     -0.606411490
     EX+EC           =    -12.655638227
Transforming the Hamiltonian                       ... done (   0.0 sec)
Diagonalizing the Hamiltonian                      ... done (   0.0 sec)
Back transforming the eigenvectors                 ... done (   0.0 sec)
Now organizing SCF variables                       ... done
                      ------------------
                      INITIAL GUESS DONE (   0.1 sec)
                      ------------------
             **** ENERGY FILE WAS UPDATED (methyl.en.tmp) ****
Finished Guess after   0.1 sec
Maximum memory used throughout the entire GUESS-calculation: 8.9 MB

-------------------------------------------------------------------------------------------
                                      ORCA LEAN-SCF
                              memory conserving SCF solver
-------------------------------------------------------------------------------------------

----------------------------------------D-I-I-S--------------------------------------------
Iteration    Energy (Eh)           Delta-E    RMSDP     MaxDP     DIISErr   Damp  Time(sec)
-------------------------------------------------------------------------------------------
               ***  Starting incremental Fock matrix formation  ***
    1    -79.7421413787872382     0.00e+00  2.40e-03  3.59e-02  1.89e-01  0.700   0.2
    2    -79.7981186651185226    -5.60e-02  1.72e-03  2.18e-02  8.79e-02  0.700   0.2
                               ***Turning on AO-DIIS***
    3    -79.8167845374602507    -1.87e-02  6.80e-04  6.87e-03  2.27e-02  0.700   0.2
    4    -79.8276064650069088    -1.08e-02  9.47e-04  1.13e-02  9.02e-03  0.000   0.1
    5    -79.8527269873474665    -2.51e-02  3.27e-04  3.52e-03  1.11e-02  0.000   0.2
                              *** Initializing SOSCF ***
---------------------------------------S-O-S-C-F--------------------------------------
Iteration    Energy (Eh)           Delta-E    RMSDP     MaxDP     MaxGrad    Time(sec)
--------------------------------------------------------------------------------------
    6    -79.8531401676164307    -4.13e-04  1.46e-04  1.58e-03  2.99e-03     0.2
               *** Restarting incremental Fock matrix formation ***
    7    -79.8531745176832999    -3.44e-05  1.17e-04  1.49e-03  3.98e-04     0.2
    8    -79.8531736794773792     8.38e-07  2.58e-05  3.78e-04  4.51e-04     0.1
    9    -79.8531772416313572    -3.56e-06  1.00e-05  1.15e-04  5.97e-05     0.1
   10    -79.8531772715354862    -2.99e-08  2.42e-06  2.50e-05  2.76e-05     0.2
   11    -79.8531772830482680    -1.15e-08  4.06e-07  4.27e-06  2.21e-06     0.1
                  *** Gradient check signals convergence ***

               *****************************************************
               *                     SUCCESS                       *
               *           SCF CONVERGED AFTER  11 CYCLES          *
               *****************************************************

             **** ENERGY FILE WAS UPDATED (methyl.en.tmp) ****

----------------
TOTAL SCF ENERGY
----------------

Total Energy       :        -79.85317728486046 Eh           -2172.91542 eV

Components:
Nuclear Repulsion  :         42.42687881000881 Eh            1154.49407 eV
Electronic Energy  :       -122.28005609486928 Eh           -3327.40949 eV
One Electron Energy:       -189.71535029386146 Eh           -5162.41713 eV
Two Electron Energy:         67.43529419899218 Eh            1835.00765 eV

Virial components:
Potential Energy   :       -159.29282926506366 Eh           -4334.57825 eV
Kinetic Energy     :         79.43965198020319 Eh            2161.66283 eV
Virial Ratio       :          2.00520552764708

DFT components:
N(Alpha)           :        9.000003659647 electrons
N(Beta)            :        9.000003659647 electrons
N(Total)           :       18.000007319294 electrons
E(X)               :      -12.491116807819 Eh       
E(C)               :       -0.608134194267 Eh       
E(XC)              :      -13.099251002086 Eh       

---------------
SCF CONVERGENCE
---------------

  Last Energy change         ...    1.1513e-08  Tolerance :   1.0000e-08
  Last MAX-Density change    ...    4.2734e-06  Tolerance :   1.0000e-07
  Last RMS-Density change    ...    4.0592e-07  Tolerance :   5.0000e-09
  Last DIIS Error            ...    2.9932e-03  Tolerance :   5.0000e-07
  Last Orbital Gradient      ...    2.2134e-06  Tolerance :   1.0000e-05
  Last Orbital Rotation      ...    1.9870e-06  Tolerance :   1.0000e-05


----------------
ORBITAL ENERGIES
----------------

  NO   OCC          E(Eh)            E(eV) 
   0   2.0000      -9.881880      -268.8996 
   1   2.0000      -9.881759      -268.8963 
   2   2.0000      -0.687900       -18.7187 
   3   2.0000      -0.552605       -15.0372 
   4   2.0000      -0.393187       -10.6992 
   5   2.0000      -0.393185       -10.6991 
   6   2.0000      -0.327869        -8.9218 
   7   2.0000      -0.302067        -8.2197 
   8   2.0000      -0.302066        -8.2196 
   9   0.0000       0.027989         0.7616 
  10   0.0000       0.068922         1.8755 
  11   0.0000       0.091674         2.4946 
  12   0.0000       0.091688         2.4950 
  13   0.0000       0.105859         2.8806 
  14   0.0000       0.105870         2.8809 
  15   0.0000       0.166182         4.5221 
  16   0.0000       0.179856         4.8941 
  17   0.0000       0.218364         5.9420 
  18   0.0000       0.218379         5.9424 
  19   0.0000       0.225011         6.1229 
*Only the first 10 virtual orbitals were printed.

                    ********************************
                    * MULLIKEN POPULATION ANALYSIS *
                    ********************************

-----------------------
MULLIKEN ATOMIC CHARGES
-----------------------
   0 C :   -0.322030
   1 C :   -0.322029
   2 H :    0.107341
   3 H :    0.107355
   4 H :    0.107334
   5 H :    0.107334
   6 H :    0.107355
   7 H :    0.107341
Sum of atomic charges:   -0.0000000

--------------------------------
MULLIKEN REDUCED ORBITAL CHARGES
--------------------------------
  0 C s       :     3.272428  s :     3.272428
      pz      :     1.033924  p :     2.996831
      px      :     1.033888
      py      :     0.929019
      dz2     :     0.002421  d :     0.049427
      dxz     :     0.001809
      dyz     :     0.020672
      dx2y2   :     0.003795
      dxy     :     0.020730
      f0      :     0.000743  f :     0.003344
      f+1     :     0.000074
      f-1     :     0.000300
      f+2     :     0.000838
      f-2     :    -0.000135
      f+3     :     0.000921
      f-3     :     0.000604

  1 C s       :     3.272427  s :     3.272427
      pz      :     1.033924  p :     2.996831
      px      :     1.033888
      py      :     0.929019
      dz2     :     0.002421  d :     0.049427
      dxz     :     0.001809
      dyz     :     0.020672
      dx2y2   :     0.003795
      dxy     :     0.020730
      f0      :     0.000743  f :     0.003344
      f+1     :     0.000074
      f-1     :     0.000300
      f+2     :     0.000838
      f-2     :    -0.000135
      f+3     :     0.000921
      f-3     :     0.000604

  2 H s       :     0.871786  s :     0.871786
      pz      :     0.005824  p :     0.020873
      px      :     0.009157
      py      :     0.005893

  3 H s       :     0.871772  s :     0.871772
      pz      :     0.006268  p :     0.020873
      px      :     0.008970
      py      :     0.005635

  4 H s       :     0.871791  s :     0.871791
      pz      :     0.010582  p :     0.020875
      px      :     0.004542
      py      :     0.005751

  5 H s       :     0.871791  s :     0.871791
      pz      :     0.010582  p :     0.020875
      px      :     0.004542
      py      :     0.005751

  6 H s       :     0.871772  s :     0.871772
      pz      :     0.006268  p :     0.020873
      px      :     0.008970
      py      :     0.005635

  7 H s       :     0.871786  s :     0.871786
      pz      :     0.005824  p :     0.020873
      px      :     0.009157
      py      :     0.005893



                     *******************************
                     * LOEWDIN POPULATION ANALYSIS *
                     *******************************

----------------------
LOEWDIN ATOMIC CHARGES
----------------------
   0 C :   -0.351571
   1 C :   -0.351570
   2 H :    0.117192
   3 H :    0.117189
   4 H :    0.117190
   5 H :    0.117190
   6 H :    0.117189
   7 H :    0.117192

-------------------------------
LOEWDIN REDUCED ORBITAL CHARGES
-------------------------------
  0 C s       :     2.840006  s :     2.840006
      pz      :     1.073678  p :     3.215396
      px      :     1.073678
      py      :     1.068041
      dz2     :     0.035360  d :     0.269938
      dxz     :     0.027840
      dyz     :     0.077741
      dx2y2   :     0.050816
      dxy     :     0.078181
      f0      :     0.004315  f :     0.026230
      f+1     :     0.000459
      f-1     :     0.003488
      f+2     :     0.005209
      f-2     :     0.002483
      f+3     :     0.006080
      f-3     :     0.004197

  1 C s       :     2.840006  s :     2.840006
      pz      :     1.073678  p :     3.215396
      px      :     1.073678
      py      :     1.068041
      dz2     :     0.035360  d :     0.269938
      dxz     :     0.027840
      dyz     :     0.077741
      dx2y2   :     0.050816
      dxy     :     0.078181
      f0      :     0.004315  f :     0.026230
      f+1     :     0.000459
      f-1     :     0.003488
      f+2     :     0.005209
      f-2     :     0.002483
      f+3     :     0.006080
      f-3     :     0.004197

  2 H s       :     0.822285  s :     0.822285
      pz      :     0.017393  p :     0.060523
      px      :     0.027437
      py      :     0.015692

  3 H s       :     0.822288  s :     0.822288
      pz      :     0.018721  p :     0.060523
      px      :     0.026732
      py      :     0.015069

  4 H s       :     0.822288  s :     0.822288
      pz      :     0.031624  p :     0.060523
      px      :     0.013551
      py      :     0.015347

  5 H s       :     0.822288  s :     0.822288
      pz      :     0.031625  p :     0.060523
      px      :     0.013551
      py      :     0.015347

  6 H s       :     0.822288  s :     0.822288
      pz      :     0.018721  p :     0.060523
      px      :     0.026732
      py      :     0.015070

  7 H s       :     0.822285  s :     0.822285
      pz      :     0.017393  p :     0.060523
      px      :     0.027437
      py      :     0.015692



                      *****************************
                      * MAYER POPULATION ANALYSIS *
                      *****************************

  NA   - Mulliken gross atomic population
  ZA   - Total nuclear charge
  QA   - Mulliken gross atomic charge
  VA   - Mayer's total valence
  BVA  - Mayer's bonded valence
  FA   - Mayer's free valence

  ATOM       NA         ZA         QA         VA         BVA        FA
  0 C      6.3220     6.0000    -0.3220     3.8904     3.8904    -0.0000
  1 C      6.3220     6.0000    -0.3220     3.8904     3.8904     0.0000
  2 H      0.8927     1.0000     0.1073     0.9649     0.9649    -0.0000
  3 H      0.8926     1.0000     0.1074     0.9649     0.9649    -0.0000
  4 H      0.8927     1.0000     0.1073     0.9649     0.9649    -0.0000
  5 H      0.8927     1.0000     0.1073     0.9649     0.9649     0.0000
  6 H      0.8926     1.0000     0.1074     0.9649     0.9649     0.0000
  7 H      0.8927     1.0000     0.1073     0.9649     0.9649    -0.0000

  Mayer bond orders larger than 0.100000
B(  0-C ,  1-C ) :   0.9897 B(  0-C ,  2-H ) :   0.9698 B(  0-C ,  3-H ) :   0.9698 
B(  0-C ,  4-H ) :   0.9698 B(  1-C ,  5-H ) :   0.9698 B(  1-C ,  6-H ) :   0.9698 
B(  1-C ,  7-H ) :   0.9698 

-------
TIMINGS
-------

Total SCF time: 0 days 0 hours 0 min 1 sec 

Total time                  ....       1.807 sec
Sum of individual times     ....       1.680 sec  ( 93.0%)

SCF preparation             ....       0.018 sec  (  1.0%)
Fock matrix formation       ....       1.623 sec  ( 89.8%)
  Startup                   ....       0.002 sec  (  0.1% of F)
  Split-RI-J                ....       0.242 sec  ( 14.9% of F)
  XC integration            ....       1.475 sec  ( 90.8% of F)
    Basis function eval.    ....       0.593 sec  ( 40.2% of XC)
    Density eval.           ....       0.235 sec  ( 15.9% of XC)
    XC-Functional eval.     ....       0.079 sec  (  5.4% of XC)
    XC-Potential eval.      ....       0.461 sec  ( 31.3% of XC)
Diagonalization             ....       0.000 sec  (  0.0%)
Density matrix formation    ....       0.006 sec  (  0.3%)
Total Energy calculation    ....       0.002 sec  (  0.1%)
Population analysis         ....       0.003 sec  (  0.2%)
Orbital Transformation      ....       0.003 sec  (  0.2%)
Orbital Orthonormalization  ....       0.000 sec  (  0.0%)
DIIS solution               ....       0.014 sec  (  0.7%)
SOSCF solution              ....       0.011 sec  (  0.6%)
Finished LeanSCF after   1.8 sec

Maximum memory used throughout the entire LEANSCF-calculation: 9.0 MB


-------------------------------------------------------------------------------
                          DFT DISPERSION CORRECTION                            
                                                                               
                              DFTD3 V3.1  Rev 1                                
                          USING Becke-Johnson damping                          
-------------------------------------------------------------------------------
The BP86 functional is recognized
Active option DFTDOPT                   ...         4   

molecular C6(AA) [au] = 363.963711 


            DFT-D V3
 parameters
 s6 scaling factor         :     1.0000 
 a1 scaling factor         :     0.3946 
 s8 scaling factor         :     3.2822 
 a2 scaling factor         :     4.8516 
 ad hoc parameters k1-k3   :    16.0000     1.3333    -4.0000 

 Edisp/kcal,au: -2.859285477889  -0.004556560962 
 E6   /kcal   :  -1.211661466 
 E8   /kcal   :  -1.647624012 
 % E8         :  57.623627478 

-------------------------   ----------------
Dispersion correction           -0.004556561
-------------------------   ----------------


-------------------------   --------------------
FINAL SINGLE POINT ENERGY       -79.857733845823
-------------------------   --------------------

------------------------------------------------------------------------------
                         ORCA SCF GRADIENT CALCULATION
------------------------------------------------------------------------------

Nuc. rep. gradient        (SHARK) ... done (  0.0 sec)
HCore & Overlap gradient  (SHARK) ... done (  0.0 sec)
Split-RIJ-J gradient      (SHARK) ... done (  0.1 sec)
XC gradient                       ... done (  0.7 sec)
Dispersion correction             ... done (  0.0 sec)

-------------------
DISPERSION GRADIENT
-------------------

   1   C   :    0.000001045    0.000036988    0.000000000
   2   C   :   -0.000001045   -0.000036988   -0.000000000
   3   H   :   -0.000024568    0.000061849    0.000013739
   4   H   :    0.000026766    0.000060399    0.000015911
   5   H   :    0.000002980    0.000061071   -0.000029650
   6   H   :   -0.000002980   -0.000061071    0.000029650
   7   H   :   -0.000026766   -0.000060399   -0.000015911
   8   H   :    0.000024568   -0.000061849   -0.000013739

Difference to translation invariance:
           :    0.0000000000   -0.0000000000    0.0000000000

Difference to rotation invariance:
           :    0.0000000000    0.0000000000    0.0000000000

Norm of the Dispersion gradient    ...    0.0001744824
RMS gradient                       ...    0.0000356161
MAX gradient                       ...    0.0000618488

------------------
CARTESIAN GRADIENT
------------------

   1   C   :   -0.000071140   -0.002637114    0.000012692
   2   C   :    0.000070137    0.002636825   -0.000012612
   3   H   :    0.002022532   -0.003561065   -0.001112636
   4   H   :   -0.002121594   -0.003452575   -0.001281156
   5   H   :   -0.000197369   -0.003481239    0.002392766
   6   H   :    0.000197397    0.003481391   -0.002392928
   7   H   :    0.002122134    0.003452876    0.001281467
   8   H   :   -0.002022097    0.003560902    0.001112407

Difference to translation invariance:
           :    0.0000000000   -0.0000000000   -0.0000000000

Difference to rotation invariance:
           :    0.0001146790   -0.0000391208   -0.0000347560

Norm of the Cartesian gradient     ...    0.0110377923
RMS gradient                       ...    0.0022530799
MAX gradient                       ...    0.0035610653

-------
TIMINGS
-------

Total SCF gradient time     ....        0.855 sec

Densities                   ....       0.000 sec  (  0.0%)
One electron gradient       ....       0.026 sec  (  3.1%)
RI-J Coulomb gradient       ....       0.118 sec  ( 13.8%)
XC gradient                 ....       0.687 sec  ( 80.3%)

Maximum memory used throughout the entire SCFGRAD-calculation: 27.5 MB
------------------------------------------------------------------------------
                         ORCA GEOMETRY RELAXATION STEP
------------------------------------------------------------------------------

Reading the OPT-File                    .... done
Getting information on internals        .... done
Copying old internal coords+grads       .... done
Making the new internal coordinates     .... (2022 redundants) done
Validating the new internal coordinates .... (2022 redundants) done
Calculating the B-matrix                .... done
Calculating the G,G- and P matrices     .... done
Transforming gradient to internals      .... done
Projecting the internal gradient        .... done
Number of atoms                         ....   8
Number of internal coordinates          ....  25
Current Energy                          ....   -79.857733846 Eh
Current gradient norm                   ....     0.011037792 Eh/bohr
Maximum allowed component of the step   ....  0.300
Current trust radius                    ....  0.300
Evaluating the initial hessian          ....  (Almloef) done
Projecting the Hessian                  .... done
Forming the augmented Hessian           .... done
Diagonalizing the augmented Hessian     .... done
Last element of RFO vector              ....  0.998792359
Lowest eigenvalues of augmented Hessian:
 -0.000871976  0.012635211  0.107661533  0.134657268  0.134657342
Length of the computed step             ....  0.049190087
The final length of the internal step   ....  0.049190087
Converting the step to Cartesian space:
 Initial RMS(Int)=    0.0098380174
Transforming coordinates:
 Iter   0:  RMS(Cart)=    0.0182328276 RMS(Int)=    1.7771788468
done
Storing new coordinates                 .... done

                                .--------------------.
          ----------------------|Geometry convergence|-------------------------
          Item                value                   Tolerance       Converged
          ---------------------------------------------------------------------
          RMS gradient        0.0035665620            0.0001000000      NO
          MAX gradient        0.0131371362            0.0003000000      NO
          RMS step            0.0098380174            0.0020000000      NO
          MAX step            0.0328510723            0.0040000000      NO
          -------------------------------------------------------------------------
          ........................................................
          Max(Bonds)      0.0174      Max(Angles)    0.47
          Max(Dihed)        0.00      Max(Improp)    0.00
          ---------------------------------------------------------------------

The optimization has not yet converged - more geometry cycles are needed


    ---------------------------------------------------------------------------
                         Redundant Internal Coordinates
                            (Angstroem and degrees)

        Definition                    Value    dE/dq     Step     New-Value
    ----------------------------------------------------------------------------
     1. B(C   1,C   0)                1.5121 -0.013137  0.0174    1.5294   
     2. B(H   2,C   0)                1.0941 -0.003475  0.0052    1.0993   
     3. B(H   3,C   0)                1.0941 -0.003478  0.0052    1.0993   
     4. B(H   4,C   0)                1.0941 -0.003463  0.0052    1.0992   
     5. B(H   5,C   1)                1.0941 -0.003463  0.0052    1.0992   
     6. B(H   6,C   1)                1.0941 -0.003479  0.0052    1.0993   
     7. B(H   7,C   1)                1.0941 -0.003474  0.0052    1.0993   
     8. A(H   2,C   0,H   4)          108.35  0.002510   -0.47    107.89   
     9. A(C   1,C   0,H   4)          110.57 -0.002410    0.45    111.02   
    10. A(C   1,C   0,H   2)          110.57 -0.002421    0.45    111.02   
    11. A(H   3,C   0,H   4)          108.35  0.002515   -0.47    107.89   
    12. A(H   2,C   0,H   3)          108.35  0.002522   -0.47    107.88   
    13. A(C   1,C   0,H   3)          110.57 -0.002428    0.45    111.02   
    14. A(C   0,C   1,H   5)          110.57 -0.002411    0.45    111.02   
    15. A(H   6,C   1,H   7)          108.35  0.002524   -0.47    107.88   
    16. A(H   5,C   1,H   7)          108.35  0.002508   -0.47    107.89   
    17. A(C   0,C   1,H   7)          110.57 -0.002421    0.45    111.02   
    18. A(H   5,C   1,H   6)          108.35  0.002515   -0.47    107.89   
    19. A(C   0,C   1,H   6)          110.57 -0.002427    0.45    111.02   
    20. D(H   5,C   1,C   0,H   3)     60.00  0.000001   -0.00     60.00   
    21. D(H   5,C   1,C   0,H   4)   -180.00  0.000001   -0.00   -180.00   
    22. D(H   6,C   1,C   0,H   2)     60.00 -0.000001    0.00     60.00   
    23. D(H   6,C   1,C   0,H   3)   -180.00  0.000001   -0.00   -180.00   
    24. D(H   6,C   1,C   0,H   4)    -60.00  0.000001   -0.00    -60.00   
    25. D(H   5,C   1,C   0,H   2)    -60.00 -0.000001    0.00    -60.00   
    ----------------------------------------------------------------------------

Geometry step timings:
Preparation and reading OPT file:      0.000 s ( 2.564 %)
Internal coordinates            :      0.000 s ( 4.791 %)
B/P matrices and projection     :      0.000 s (11.269 %)
Hessian update/contruction      :      0.001 s (40.553 %)
Making the step                 :      0.000 s ( 8.637 %)
Converting the step to Cartesian:      0.000 s ( 2.294 %)
Storing new data                :      0.000 s ( 5.735 %)
Checking convergence            :      0.000 s ( 5.061 %)
Final printing                  :      0.000 s (19.028 %)
Total time                      :      0.001 s

Time for energy+gradient        :      4.527 s
Time for complete geometry iter :      4.931 s

         *************************************************************
         *                GEOMETRY OPTIMIZATION CYCLE   2            *
         *************************************************************
---------------------------------
CARTESIAN COORDINATES (ANGSTROEM)
---------------------------------
  C     -2.284171    1.474768    0.000004
  C     -2.327354   -0.054064   -0.000003
  H     -3.182220    1.894514    0.475064
  H     -1.407211    1.844397    0.550178
  H     -2.229681    1.867575   -1.025207
  H     -2.381837   -0.446872    1.025208
  H     -3.204316   -0.423693   -0.550172
  H     -1.429308   -0.473810   -0.475069

----------------------------
CARTESIAN COORDINATES (A.U.)
----------------------------
  NO LB      ZA    FRAG     MASS         X           Y           Z
   0 C     6.0000    0    12.011   -4.316457    2.786907    0.000007
   1 C     6.0000    0    12.011   -4.398062   -0.102167   -0.000005
   2 H     1.0000    0     1.008   -6.013524    3.580112    0.897741
   3 H     1.0000    0     1.008   -2.659244    3.485405    1.039686
   4 H     1.0000    0     1.008   -4.213487    3.529206   -1.937360
   5 H     1.0000    0     1.008   -4.501020   -0.844466    1.937363
   6 H     1.0000    0     1.008   -6.055280   -0.800663   -1.039675
   7 H     1.0000    0     1.008   -2.701000   -0.895371   -0.897749

--------------------------------
INTERNAL COORDINATES (ANGSTROEM)
--------------------------------
 C      0   0   0     0.000000000000     0.00000000     0.00000000
 C      1   0   0     1.529441821513     0.00000000     0.00000000
 H      1   2   0     1.099254841900   111.01600277     0.00000000
 H      1   2   3     1.099260978397   111.01703470   119.99899301
 H      1   2   3     1.099237750109   111.01415344   239.99899029
 H      2   1   3     1.099237696835   111.01413954   300.00068225
 H      2   1   3     1.099260847740   111.01699819    60.00070571
 H      2   1   3     1.099254907498   111.01598952   179.99963906

---------------------------
INTERNAL COORDINATES (A.U.)
---------------------------
 C      0   0   0     0.000000000000     0.00000000     0.00000000
 C      1   0   0     2.890226180425     0.00000000     0.00000000
 H      1   2   0     2.077290602577   111.01600277     0.00000000
 H      1   2   3     2.077302198877   111.01703470   119.99899301
 H      1   2   3     2.077258303773   111.01415344   239.99899029
 H      2   1   3     2.077258203101   111.01413954   300.00068225
 H      2   1   3     2.077301951970   111.01699819    60.00070571
 H      2   1   3     2.077290726540   111.01598952   179.99963906

------------------------------------------------------------------------------
                   ___                                                        
                  /   \      - P O W E R E D   B Y -                         
                 /     \                                                     
                 |  |  |   _    _      __       _____    __    __             
                 |  |  |  | |  | |    /  \     |  _  \  |  |  /  |          
                  \  \/   | |  | |   /    \    | | | |  |  | /  /          
                 / \  \   | |__| |  /  /\  \   | |_| |  |  |/  /          
                |  |  |   |  __  | /  /__\  \  |    /   |      \           
                |  |  |   | |  | | |   __   |  |    \   |  |\   \          
                \     /   | |  | | |  |  |  |  | |\  \  |  | \   \       
                 \___/    |_|  |_| |__|  |__|  |_| \__\ |__|  \__/        
                                                                              
                      - O R C A' S   B I G   F R I E N D -                    
                                      &                                       
                       - I N T E G R A L  F E E D E R -                       
                                                                              
 v1 FN, 2020, v2 2021, v3 2022-2024                                           
------------------------------------------------------------------------------


----------------------
SHARK INTEGRAL PACKAGE
----------------------

Number of atoms                             ...      8
Number of basis functions                   ...     98
Number of shells                            ...     46
Maximum angular momentum                    ...      3
Integral batch strategy                     ... SHARK/LIBINT Hybrid
RI-J (if used) integral strategy            ... SPLIT-RIJ (Revised 2003 algorithm where possible)
Printlevel                                  ...      1
Contraction scheme used                     ... SEGMENTED contraction
Prescreening option                         ... SCHWARTZ
   Thresh                                   ... 2.500e-11
   Tcut                                     ... 2.500e-12
   Tpresel                                  ... 2.500e-12 
Coulomb Range Separation                    ... NOT USED
Exchange Range Separation                   ... NOT USED
Multipole approximations                    ... NOT USED
Finite Nucleus Model                        ... NOT USED
CABS basis                                  ... NOT available
Auxiliary Coulomb fitting basis             ... AVAILABLE
   # of basis functions in Aux-J            ...    164
   # of shells in Aux-J                     ...     60
   Maximum angular momentum in Aux-J        ...      4
Auxiliary J/K fitting basis                 ... NOT available
Auxiliary Correlation fitting basis         ... NOT available
Auxiliary 'external' fitting basis          ... NOT available

Checking pre-screening integrals            ... done (  0.0 sec) Dimension = 46
   => SHARK Basis and OBASIS are compatible. Storing Pre-screening
Shell pair information
Shell pair cut-off parameter TPreSel        ...   2.5e-12
Total number of shell pairs                 ...      1081
Shell pairs after pre-screening             ...      1080
Total number of primitive shell pairs       ...      2988
Primitive shell pairs kept                  ...      2670
          la=0 lb=0:    405 shell pairs
          la=1 lb=0:    336 shell pairs
          la=1 lb=1:     78 shell pairs
          la=2 lb=0:    112 shell pairs
          la=2 lb=1:     48 shell pairs
          la=2 lb=2:     10 shell pairs
          la=3 lb=0:     56 shell pairs
          la=3 lb=1:     24 shell pairs
          la=3 lb=2:      8 shell pairs
          la=3 lb=3:      3 shell pairs

Checking whether 4 symmetric matrices of dimension 98 fit in memory
:Max Core in MB      =   4096.00
 MB in use           =      4.35
 MB left             =   4091.65
 MB needed           =      0.15
 Data fit in memory  = YES
Calculating RI/J V-Matrix + Cholesky decomp.... done (  0.0 sec)
Calculating Nuclear repulsion               ... done (  0.0 sec) ENN=     42.075667415089 Eh

Diagonalization of the overlap matrix:
Smallest eigenvalue                        ... 5.795e-04
Time for diagonalization                   ...    0.001 sec
Threshold for overlap eigenvalues          ... 1.000e-07
Number of eigenvalues below threshold      ... 0
Time for construction of square roots      ...    0.000 sec
Total time needed                          ...    0.001 sec

-------------------
DFT GRID GENERATION
-------------------

General Integration Accuracy     IntAcc      ... 4.388
Radial Grid Type                 RadialGrid  ... OptM3 with GC (2021)
Angular Grid (max. ang.)         AngularGrid ... 4 (Lebedev-302)
Angular grid pruning method      GridPruning ... 4 (adaptive)
Weight generation scheme         WeightScheme... mBecke (2022)
Basis function cutoff            BFCut       ... 1.0000e-11
Integration weight cutoff        WCut        ... 1.0000e-14
Partially contracted basis set               ... off
Rotationally invariant grid construction     ... off
Angular grids for H and He will be reduced by one unit

Total number of grid points                  ...    31698
Total number of batches                      ...      500
Average number of points per batch           ...       63
Average number of grid points per atom       ...     3962
Grids setup in   0.1 sec
Initializing property integral containers    ... done (  0.0 sec)

SHARK setup successfully completed in   0.1 seconds

Maximum memory used throughout the entire STARTUP-calculation: 14.8 MB
Occupation numbers will be reassigned to an Aufbau configuration
             **** ENERGY FILE WAS UPDATED (methyl.en.tmp) ****
Finished Guess after   0.0 sec
Maximum memory used throughout the entire GUESS-calculation: 9.0 MB
----------------------------------------D-I-I-S--------------------------------------------
Iteration    Energy (Eh)           Delta-E    RMSDP     MaxDP     DIISErr   Damp  Time(sec)
-------------------------------------------------------------------------------------------
               ***  Starting incremental Fock matrix formation  ***
                              *** Initializing SOSCF ***
---------------------------------------S-O-S-C-F--------------------------------------
Iteration    Energy (Eh)           Delta-E    RMSDP     MaxDP     MaxGrad    Time(sec)
--------------------------------------------------------------------------------------
    1    -79.8536276764493067     0.00e+00  1.69e-04  2.72e-03  4.97e-04     0.2
               *** Restarting incremental Fock matrix formation ***
    2    -79.8536910115047505    -6.33e-05  1.15e-04  1.33e-03  7.53e-04     0.2
    3    -79.8536822620946651     8.75e-06  5.92e-05  8.12e-04  9.97e-04     0.1
    4    -79.8537005514804008    -1.83e-05  2.69e-06  2.30e-05  1.66e-05     0.2
    5    -79.8537005572543848    -5.77e-09  3.20e-07  4.25e-06  3.30e-06     0.1
                 **** Energy Check signals convergence ****

               *****************************************************
               *                     SUCCESS                       *
               *           SCF CONVERGED AFTER   5 CYCLES          *
               *****************************************************

             **** ENERGY FILE WAS UPDATED (methyl.en.tmp) ****

----------------
TOTAL SCF ENERGY
----------------

Total Energy       :        -79.85370055620946 Eh           -2172.92966 eV

Components:
Nuclear Repulsion  :         42.07566741508940 Eh            1144.93712 eV
Electronic Energy  :       -121.92936797129886 Eh           -3317.86678 eV
One Electron Energy:       -189.03123256575904 Eh           -5143.80134 eV
Two Electron Energy:         67.10186459446018 Eh            1825.93456 eV

Virial components:
Potential Energy   :       -159.22186330836126 Eh           -4332.64717 eV
Kinetic Energy     :         79.36816275215182 Eh            2159.71751 eV
Virial Ratio       :          2.00611753866061

DFT components:
N(Alpha)           :        9.000003327010 electrons
N(Beta)            :        9.000003327010 electrons
N(Total)           :       18.000006654019 electrons
E(X)               :      -12.473450286956 Eh       
E(C)               :       -0.607039511194 Eh       
E(XC)              :      -13.080489798150 Eh       

---------------
SCF CONVERGENCE
---------------

  Last Energy change         ...    5.7740e-09  Tolerance :   1.0000e-08
  Last MAX-Density change    ...    4.2479e-06  Tolerance :   1.0000e-07
  Last RMS-Density change    ...    3.1977e-07  Tolerance :   5.0000e-09
  Last DIIS Error            ...    3.1446e-03  Tolerance :   5.0000e-07
  Last Orbital Gradient      ...    3.2988e-06  Tolerance :   1.0000e-05
  Last Orbital Rotation      ...    4.1448e-06  Tolerance :   1.0000e-05


Total SCF time: 0 days 0 hours 0 min 0 sec 
Finished LeanSCF after   0.9 sec

Maximum memory used throughout the entire LEANSCF-calculation: 9.0 MB


-------------------------------------------------------------------------------
                          DFT DISPERSION CORRECTION                            
                                                                               
                              DFTD3 V3.1  Rev 1                                
                          USING Becke-Johnson damping                          
-------------------------------------------------------------------------------
-------------------------   ----------------
Dispersion correction           -0.004541568
-------------------------   ----------------


-------------------------   --------------------
FINAL SINGLE POINT ENERGY       -79.858242123736
-------------------------   --------------------

------------------------------------------------------------------------------
                         ORCA SCF GRADIENT CALCULATION
------------------------------------------------------------------------------

Nuc. rep. gradient        (SHARK) ... done (  0.0 sec)
HCore & Overlap gradient  (SHARK) ... done (  0.0 sec)
Split-RIJ-J gradient      (SHARK) ... done (  0.1 sec)
XC gradient                       ... done (  0.7 sec)
Dispersion correction             ... done (  0.0 sec)

-------------------
DISPERSION GRADIENT
-------------------

   1   C   :    0.000001125    0.000039790    0.000000004
   2   C   :   -0.000001125   -0.000039790   -0.000000004
   3   H   :   -0.000024320    0.000064520    0.000013650
   4   H   :    0.000026677    0.000063081    0.000015807
   5   H   :    0.000003048    0.000063745   -0.000029457
   6   H   :   -0.000003047   -0.000063745    0.000029457
   7   H   :   -0.000026677   -0.000063080   -0.000015807
   8   H   :    0.000024320   -0.000064520   -0.000013650

Difference to translation invariance:
           :   -0.0000000000    0.0000000000    0.0000000000

Difference to rotation invariance:
           :    0.0000000000    0.0000000000    0.0000000000

Norm of the Dispersion gradient    ...    0.0001811422
RMS gradient                       ...    0.0000369755
MAX gradient                       ...    0.0000645198

------------------
CARTESIAN GRADIENT
------------------

   1   C   :    0.000034309    0.001168949    0.000004986
   2   C   :   -0.000034409   -0.001169084   -0.000004902
   3   H   :   -0.000175856   -0.000920206    0.000076486
   4   H   :    0.000116788   -0.000932565    0.000095589
   5   H   :   -0.000015864   -0.000916284   -0.000160826
   6   H   :    0.000015907    0.000916342    0.000160841
   7   H   :   -0.000116727    0.000932636   -0.000095578
   8   H   :    0.000175852    0.000920213   -0.000076595

Difference to translation invariance:
           :    0.0000000000   -0.0000000000    0.0000000000

Difference to rotation invariance:
           :    0.0001040523   -0.0000366314   -0.0000301900

Norm of the Cartesian gradient     ...    0.0028318314
RMS gradient                       ...    0.0005780452
MAX gradient                       ...    0.0011690841

-------
TIMINGS
-------

Total SCF gradient time     ....        0.866 sec

Densities                   ....       0.000 sec  (  0.0%)
One electron gradient       ....       0.015 sec  (  1.8%)
RI-J Coulomb gradient       ....       0.127 sec  ( 14.7%)
XC gradient                 ....       0.700 sec  ( 80.8%)

Maximum memory used throughout the entire SCFGRAD-calculation: 27.5 MB
------------------------------------------------------------------------------
                         ORCA GEOMETRY RELAXATION STEP
------------------------------------------------------------------------------

Reading the OPT-File                    .... done
Getting information on internals        .... done
Copying old internal coords+grads       .... done
Making the new internal coordinates     .... (2022 redundants) done
Validating the new internal coordinates .... (2022 redundants) done
Calculating the B-matrix                .... done
Calculating the G,G- and P matrices     .... done
Transforming gradient to internals      .... done
Projecting the internal gradient        .... done
Number of atoms                         ....   8
Number of internal coordinates          ....  25
Current Energy                          ....   -79.858242124 Eh
Current gradient norm                   ....     0.002831831 Eh/bohr
Maximum allowed component of the step   ....  0.300
Current trust radius                    ....  0.300
Updating the Hessian (BFGS)             .... done
Forming the augmented Hessian           .... done
Diagonalizing the augmented Hessian     .... done
Last element of RFO vector              ....  0.999893050
Lowest eigenvalues of augmented Hessian:
 -0.000052942  0.012635211  0.107661533  0.134657267  0.134657296
Length of the computed step             ....  0.014626499
The final length of the internal step   ....  0.014626499
Converting the step to Cartesian space:
 Initial RMS(Int)=    0.0029252998
Transforming coordinates:
 Iter   0:  RMS(Cart)=    0.0053480527 RMS(Int)=    0.0029297838
done
Storing new coordinates                 .... done
The predicted energy change is          ....    -0.000026477
Previously predicted energy change      ....    -0.000437043
Actually observed energy change         ....    -0.000508278
Ratio of predicted to observed change   ....     1.162993360
New trust radius                        ....     0.450000000

                                .--------------------.
          ----------------------|Geometry convergence|-------------------------
          Item                value                   Tolerance       Converged
          ---------------------------------------------------------------------
          Energy change      -0.0005082779            0.0000050000      NO
          RMS gradient        0.0007254370            0.0001000000      NO
          MAX gradient        0.0016006157            0.0003000000      NO
          RMS step            0.0029252998            0.0020000000      NO
          MAX step            0.0056237754            0.0040000000      NO
          -------------------------------------------------------------------------
          ........................................................
          Max(Bonds)      0.0030      Max(Angles)    0.23
          Max(Dihed)        0.00      Max(Improp)    0.00
          ---------------------------------------------------------------------

The optimization has not yet converged - more geometry cycles are needed


    ---------------------------------------------------------------------------
                         Redundant Internal Coordinates
                            (Angstroem and degrees)

        Definition                    Value    dE/dq     Step     New-Value
    ----------------------------------------------------------------------------
     1. B(C   1,C   0)                1.5294 -0.001601  0.0030    1.5324   
     2. B(H   2,C   0)                1.0993 -0.000175  0.0004    1.0997   
     3. B(H   3,C   0)                1.0993 -0.000175  0.0004    1.0997   
     4. B(H   4,C   0)                1.0992 -0.000175  0.0004    1.0997   
     5. B(H   5,C   1)                1.0992 -0.000175  0.0004    1.0997   
     6. B(H   6,C   1)                1.0993 -0.000175  0.0004    1.0997   
     7. B(H   7,C   1)                1.0993 -0.000175  0.0004    1.0997   
     8. A(H   2,C   0,H   4)          107.89  0.000953   -0.22    107.66   
     9. A(C   1,C   0,H   4)          111.01 -0.000902    0.22    111.23   
    10. A(C   1,C   0,H   2)          111.02 -0.000907    0.22    111.23   
    11. A(H   3,C   0,H   4)          107.88  0.000955   -0.23    107.66   
    12. A(H   2,C   0,H   3)          107.88  0.000960   -0.23    107.66   
    13. A(C   1,C   0,H   3)          111.02 -0.000909    0.22    111.23   
    14. A(C   0,C   1,H   5)          111.01 -0.000903    0.22    111.23   
    15. A(H   6,C   1,H   7)          107.88  0.000961   -0.23    107.66   
    16. A(H   5,C   1,H   7)          107.89  0.000952   -0.22    107.66   
    17. A(C   0,C   1,H   7)          111.02 -0.000907    0.22    111.23   
    18. A(H   5,C   1,H   6)          107.88  0.000956   -0.23    107.66   
    19. A(C   0,C   1,H   6)          111.02 -0.000908    0.22    111.23   
    20. D(H   5,C   1,C   0,H   3)     60.00  0.000001   -0.00     60.00   
    21. D(H   5,C   1,C   0,H   4)    180.00  0.000001   -0.00    180.00   
    22. D(H   6,C   1,C   0,H   2)     60.00 -0.000001    0.00     60.00   
    23. D(H   6,C   1,C   0,H   3)    180.00  0.000001   -0.00    180.00   
    24. D(H   6,C   1,C   0,H   4)    -60.00  0.000000   -0.00    -60.00   
    25. D(H   5,C   1,C   0,H   2)    -60.00 -0.000001    0.00    -60.00   
    ----------------------------------------------------------------------------

Geometry step timings:
Preparation and reading OPT file:      0.000 s ( 5.825 %)
Internal coordinates            :      0.000 s ( 2.973 %)
B/P matrices and projection     :      0.000 s (10.012 %)
Hessian update/contruction      :      0.001 s (45.267 %)
Making the step                 :      0.000 s ( 7.524 %)
Converting the step to Cartesian:      0.000 s ( 2.002 %)
Storing new data                :      0.000 s ( 5.340 %)
Checking convergence            :      0.000 s ( 4.733 %)
Final printing                  :      0.000 s (16.323 %)
Total time                      :      0.002 s

Time for energy+gradient        :      2.372 s
Time for complete geometry iter :      2.461 s

         *************************************************************
         *                GEOMETRY OPTIMIZATION CYCLE   3            *
         *************************************************************
---------------------------------
CARTESIAN COORDINATES (ANGSTROEM)
---------------------------------
  C     -2.284128    1.476255    0.000004
  C     -2.327396   -0.055552   -0.000003
  H     -3.181107    1.899969    0.474576
  H     -1.407972    1.849912    0.549609
  H     -2.229565    1.873046   -1.024135
  H     -2.381949   -0.452343    1.024137
  H     -3.203558   -0.429208   -0.549599
  H     -1.430423   -0.479266   -0.474585

----------------------------
CARTESIAN COORDINATES (A.U.)
----------------------------
  NO LB      ZA    FRAG     MASS         X           Y           Z
   0 C     6.0000    0    12.011   -4.316377    2.789718    0.000008
   1 C     6.0000    0    12.011   -4.398141   -0.104978   -0.000006
   2 H     1.0000    0     1.008   -6.011420    3.590421    0.896818
   3 H     1.0000    0     1.008   -2.660682    3.495827    1.038610
   4 H     1.0000    0     1.008   -4.213267    3.539544   -1.935335
   5 H     1.0000    0     1.008   -4.501232   -0.854805    1.935338
   6 H     1.0000    0     1.008   -6.053847   -0.811085   -1.038592
   7 H     1.0000    0     1.008   -2.703108   -0.905681   -0.896835

--------------------------------
INTERNAL COORDINATES (ANGSTROEM)
--------------------------------
 C      0   0   0     0.000000000000     0.00000000     0.00000000
 C      1   0   0     1.532417795296     0.00000000     0.00000000
 H      1   2   0     1.099691692349   111.23050154     0.00000000
 H      1   2   3     1.099697487640   111.23192607   119.99782345
 H      1   2   3     1.099673726350   111.22791904   239.99801077
 H      2   1   3     1.099673694442   111.22793094   300.00141566
 H      2   1   3     1.099697517901   111.23188584    60.00161148
 H      2   1   3     1.099691666268   111.23049631   179.99934753

---------------------------
INTERNAL COORDINATES (A.U.)
---------------------------
 C      0   0   0     0.000000000000     0.00000000     0.00000000
 C      1   0   0     2.895849955857     0.00000000     0.00000000
 H      1   2   0     2.078116130287   111.23050154     0.00000000
 H      1   2   3     2.078127081801   111.23192607   119.99782345
 H      1   2   3     2.078082179471   111.22791904   239.99801077
 H      2   1   3     2.078082119172   111.22793094   300.00141566
 H      2   1   3     2.078127138985   111.23188584    60.00161148
 H      2   1   3     2.078116081001   111.23049631   179.99934753

------------------------------------------------------------------------------
                   ___                                                        
                  /   \      - P O W E R E D   B Y -                         
                 /     \                                                     
                 |  |  |   _    _      __       _____    __    __             
                 |  |  |  | |  | |    /  \     |  _  \  |  |  /  |          
                  \  \/   | |  | |   /    \    | | | |  |  | /  /          
[...]
               *** Restarting incremental Fock matrix formation ***
    2    -79.8537456490799684    -4.42e-08  1.85e-06  2.37e-05  1.37e-05     0.1
    3    -79.8537456501912288    -1.11e-09  7.81e-07  9.94e-06  1.23e-05     0.1
                 **** Energy Check signals convergence ****

               *****************************************************
               *                     SUCCESS                       *
               *           SCF CONVERGED AFTER   3 CYCLES          *
               *****************************************************

             **** ENERGY FILE WAS UPDATED (methyl.en.tmp) ****

----------------
TOTAL SCF ENERGY
----------------

Total Energy       :        -79.85374565318131 Eh           -2172.93089 eV

Components:
Nuclear Repulsion  :         42.03779380154627 Eh            1143.90652 eV
Electronic Energy  :       -121.89153945472758 Eh           -3316.83741 eV
One Electron Energy:       -188.95574297872346 Eh           -5141.74717 eV
Two Electron Energy:         67.06420352399589 Eh            1824.90975 eV

Virial components:
Potential Energy   :       -159.21529263509049 Eh           -4332.46837 eV
Kinetic Energy     :         79.36154698190919 Eh            2159.53748 eV
Virial Ratio       :          2.00620197929590

DFT components:
N(Alpha)           :        9.000002426207 electrons
N(Beta)            :        9.000002426207 electrons
N(Total)           :       18.000004852413 electrons
E(X)               :      -12.471905007486 Eh       
E(C)               :       -0.606941953869 Eh       
E(XC)              :      -13.078846961355 Eh       

---------------
SCF CONVERGENCE
---------------

  Last Energy change         ...    1.1113e-09  Tolerance :   1.0000e-08
  Last MAX-Density change    ...    9.9398e-06  Tolerance :   1.0000e-07
  Last RMS-Density change    ...    7.8076e-07  Tolerance :   5.0000e-09
  Last DIIS Error            ...    9.7282e-05  Tolerance :   5.0000e-07
  Last Orbital Gradient      ...    1.2291e-05  Tolerance :   1.0000e-05
  Last Orbital Rotation      ...    1.3617e-05  Tolerance :   1.0000e-05


----------------
ORBITAL ENERGIES
----------------

  NO   OCC          E(Eh)            E(eV) 
   0   2.0000      -9.885671      -269.0028 
   1   2.0000      -9.885568      -269.0000 
   2   2.0000      -0.683059       -18.5870 
   3   2.0000      -0.554584       -15.0910 
   4   2.0000      -0.388879       -10.5819 
   5   2.0000      -0.388863       -10.5815 
   6   2.0000      -0.329619        -8.9694 
   7   2.0000      -0.302243        -8.2244 
   8   2.0000      -0.302229        -8.2241 
   9   0.0000       0.027948         0.7605 
  10   0.0000       0.065414         1.7800 
  11   0.0000       0.090711         2.4684 
  12   0.0000       0.090727         2.4688 
  13   0.0000       0.105944         2.8829 
  14   0.0000       0.105958         2.8833 
  15   0.0000       0.163402         4.4464 
  16   0.0000       0.180344         4.9074 
  17   0.0000       0.219729         5.9791 
  18   0.0000       0.219749         5.9797 
  19   0.0000       0.221468         6.0264 
*Only the first 10 virtual orbitals were printed.

                    ********************************
                    * MULLIKEN POPULATION ANALYSIS *
                    ********************************

-----------------------
MULLIKEN ATOMIC CHARGES
-----------------------
   0 C :   -0.329280
   1 C :   -0.329280
   2 H :    0.109757
   3 H :    0.109774
   4 H :    0.109750
   5 H :    0.109750
   6 H :    0.109774
   7 H :    0.109757
Sum of atomic charges:    0.0000000

--------------------------------
MULLIKEN REDUCED ORBITAL CHARGES
--------------------------------
  0 C s       :     3.275068  s :     3.275068
      pz      :     1.037122  p :     3.002591
      px      :     1.037096
      py      :     0.928373
      dz2     :     0.002490  d :     0.048410
      dxz     :     0.001931
      dyz     :     0.020086
      dx2y2   :     0.003757
      dxy     :     0.020145
      f0      :     0.000692  f :     0.003212
      f+1     :     0.000068
      f-1     :     0.000326
      f+2     :     0.000772
      f-2     :    -0.000127
      f+3     :     0.000840
      f-3     :     0.000641

  1 C s       :     3.275068  s :     3.275068
      pz      :     1.037122  p :     3.002591
      px      :     1.037096
      py      :     0.928373
      dz2     :     0.002490  d :     0.048410
      dxz     :     0.001931
      dyz     :     0.020086
      dx2y2   :     0.003757
      dxy     :     0.020145
      f0      :     0.000692  f :     0.003212
      f+1     :     0.000068
      f-1     :     0.000326
      f+2     :     0.000772
      f-2     :    -0.000127
      f+3     :     0.000840
      f-3     :     0.000641

  2 H s       :     0.869465  s :     0.869465
      pz      :     0.005826  p :     0.020778
      px      :     0.009077
      py      :     0.005875

  3 H s       :     0.869449  s :     0.869449
      pz      :     0.006260  p :     0.020777
      px      :     0.008908
      py      :     0.005609

  4 H s       :     0.869469  s :     0.869469
      pz      :     0.010478  p :     0.020781
      px      :     0.004573
      py      :     0.005730

  5 H s       :     0.869469  s :     0.869469
      pz      :     0.010478  p :     0.020781
      px      :     0.004573
      py      :     0.005730

  6 H s       :     0.869449  s :     0.869449
      pz      :     0.006260  p :     0.020777
      px      :     0.008908
      py      :     0.005609

  7 H s       :     0.869465  s :     0.869465
      pz      :     0.005826  p :     0.020778
      px      :     0.009077
      py      :     0.005875



                     *******************************
                     * LOEWDIN POPULATION ANALYSIS *
                     *******************************

----------------------
LOEWDIN ATOMIC CHARGES
----------------------
   0 C :   -0.351709
   1 C :   -0.351709
   2 H :    0.117238
   3 H :    0.117237
   4 H :    0.117233
   5 H :    0.117233
   6 H :    0.117237
   7 H :    0.117238

-------------------------------
LOEWDIN REDUCED ORBITAL CHARGES
-------------------------------
  0 C s       :     2.847582  s :     2.847582
      pz      :     1.077990  p :     3.217823
      px      :     1.077989
      py      :     1.061845
      dz2     :     0.034193  d :     0.261602
      dxz     :     0.026875
      dyz     :     0.075433
      dx2y2   :     0.049235
      dxy     :     0.075866
      f0      :     0.003958  f :     0.024702
      f+1     :     0.000413
      f-1     :     0.003484
      f+2     :     0.004714
      f-2     :     0.002599
      f+3     :     0.005427
      f-3     :     0.004108

  1 C s       :     2.847582  s :     2.847582
      pz      :     1.077990  p :     3.217823
      px      :     1.077989
      py      :     1.061845
      dz2     :     0.034193  d :     0.261602
      dxz     :     0.026875
      dyz     :     0.075433
      dx2y2   :     0.049235
      dxy     :     0.075866
      f0      :     0.003958  f :     0.024702
      f+1     :     0.000413
      f-1     :     0.003484
      f+2     :     0.004714
      f-2     :     0.002599
      f+3     :     0.005427
      f-3     :     0.004108

  2 H s       :     0.822819  s :     0.822819
      pz      :     0.017241  p :     0.059943
      px      :     0.027201
      py      :     0.015501

  3 H s       :     0.822821  s :     0.822821
      pz      :     0.018560  p :     0.059942
      px      :     0.026539
      py      :     0.014843

  4 H s       :     0.822821  s :     0.822821
      pz      :     0.031383  p :     0.059945
      px      :     0.013425
      py      :     0.015137

  5 H s       :     0.822821  s :     0.822821
      pz      :     0.031383  p :     0.059945
      px      :     0.013425
      py      :     0.015137

  6 H s       :     0.822821  s :     0.822821
      pz      :     0.018560  p :     0.059942
      px      :     0.026539
      py      :     0.014843

  7 H s       :     0.822819  s :     0.822819
      pz      :     0.017241  p :     0.059943
      px      :     0.027201
      py      :     0.015501



                      *****************************
                      * MAYER POPULATION ANALYSIS *
                      *****************************

  NA   - Mulliken gross atomic population
  ZA   - Total nuclear charge
  QA   - Mulliken gross atomic charge
  VA   - Mayer's total valence
  BVA  - Mayer's bonded valence
  FA   - Mayer's free valence

  ATOM       NA         ZA         QA         VA         BVA        FA
  0 C      6.3293     6.0000    -0.3293     3.8923     3.8923    -0.0000
  1 C      6.3293     6.0000    -0.3293     3.8923     3.8923     0.0000
  2 H      0.8902     1.0000     0.1098     0.9642     0.9642    -0.0000
  3 H      0.8902     1.0000     0.1098     0.9642     0.9642    -0.0000
  4 H      0.8903     1.0000     0.1097     0.9642     0.9642     0.0000
  5 H      0.8903     1.0000     0.1097     0.9642     0.9642     0.0000
  6 H      0.8902     1.0000     0.1098     0.9642     0.9642     0.0000
  7 H      0.8902     1.0000     0.1098     0.9642     0.9642    -0.0000

  Mayer bond orders larger than 0.100000
B(  0-C ,  1-C ) :   0.9911 B(  0-C ,  2-H ) :   0.9692 B(  0-C ,  3-H ) :   0.9692 
B(  0-C ,  4-H ) :   0.9692 B(  1-C ,  5-H ) :   0.9692 B(  1-C ,  6-H ) :   0.9692 
B(  1-C ,  7-H ) :   0.9692 

-------
TIMINGS
-------

Total SCF time: 0 days 0 hours 0 min 0 sec 

Total time                  ....       0.648 sec
Sum of individual times     ....       0.478 sec  ( 73.8%)

SCF preparation             ....       0.021 sec  (  3.2%)
Fock matrix formation       ....       0.438 sec  ( 67.6%)
  Startup                   ....       0.001 sec  (  0.2% of F)
  Split-RI-J                ....       0.071 sec  ( 16.2% of F)
  XC integration            ....       0.518 sec  (118.2% of F)
    Basis function eval.    ....       0.214 sec  ( 41.2% of XC)
    Density eval.           ....       0.086 sec  ( 16.7% of XC)
    XC-Functional eval.     ....       0.027 sec  (  5.2% of XC)
    XC-Potential eval.      ....       0.153 sec  ( 29.6% of XC)
Diagonalization             ....       0.000 sec  (  0.0%)
Density matrix formation    ....       0.001 sec  (  0.2%)
Total Energy calculation    ....       0.001 sec  (  0.2%)
Population analysis         ....       0.011 sec  (  1.7%)
Orbital Transformation      ....       0.001 sec  (  0.2%)
Orbital Orthonormalization  ....       0.000 sec  (  0.0%)
DIIS solution               ....       0.001 sec  (  0.2%)
SOSCF solution              ....       0.003 sec  (  0.5%)
Finished LeanSCF after   0.7 sec

Maximum memory used throughout the entire LEANSCF-calculation: 9.2 MB


-------------------------------------------------------------------------------
                          DFT DISPERSION CORRECTION                            
                                                                               
                              DFTD3 V3.1  Rev 1                                
                          USING Becke-Johnson damping                          
-------------------------------------------------------------------------------
The BP86 functional is recognized
Active option DFTDOPT                   ...         4   

molecular C6(AA) [au] = 364.066932 


            DFT-D V3
 parameters
 s6 scaling factor         :     1.0000 
 a1 scaling factor         :     0.3946 
 s8 scaling factor         :     3.2822 
 a2 scaling factor         :     4.8516 
 ad hoc parameters k1-k3   :    16.0000     1.3333    -4.0000 

 Edisp/kcal,au: -2.846923779937  -0.004536861345 
 E6   /kcal   :  -1.205421140 
 E8   /kcal   :  -1.641502640 
 % E8         :  57.658819368 

-------------------------   ----------------
Dispersion correction           -0.004536861
-------------------------   ----------------


-------------------------   --------------------
FINAL SINGLE POINT ENERGY       -79.858282514526
-------------------------   --------------------

                                *** OPTIMIZATION RUN DONE ***


------------------------------------------------------------------------------
                              ORCA PROPERTY CALCULATIONS
------------------------------------------------------------------------------

GBWName                                 ... methyl.gbw
Number of atoms                         ...      8
Number of basis functions               ...     98
Max core memory                         ...   4096 MB

Electric properties:
Dipole moment                           ... YES
Quadrupole moment                       ...  NO
Static polarizability (Dipole/Dipole)   ...  NO
Static polarizability (Dipole/Quad.)    ...  NO
Static polarizability (Quad./Quad.)     ...  NO
Static polarizability (Velocity)        ...  NO
Static hyperpolarizability              ...  NO

Atomic electric properties:
Dipole moment                           ...  NO
Quadrupole moment                       ...  NO
Static polarizability                   ...  NO

Choice of electric origin               ... Center of mass
Position of electric origin             ...    -4.357259     1.342370     0.000001

General magnetic properties:
Magnetizability                         ...  NO

EPR properties:
g-Tensor (aka g-matrix)                 ...  NO
Zero-Field splitting spin-orbit         ...  NO
Zero-field splitting spin-spin          ...  NO
Hyperfine couplings                     ...  NO (   0 nuclei)
Quadrupole couplings                    ...  NO (   0 nuclei)
Contact density                         ...  NO (   0 nuclei)

NMR properties:
Chemical shifts                         ...  NO (   0 nuclei)
Spin-rotation constants                 ...  NO (   0 nuclei)
Spin-spin couplings                     ...  NO (   0 nuclei,    0 pairs)

Choice of magnetic origin               ... GIAO
Position of magnetic origin             ...     0.000000     0.000000     0.000000

Properties with geometric perturbations:
SCF Hessian                             ...  NO
IR spectrum                             ...  NO
VCD spectrum                            ...  NO
X-ray spectroscopy properties:
SCF XES/XAS/RIXS spectra                ...  NO

SCF SOC stabilization energy            ...  NO
Diagonal Born-Oppenheimer correction    ...  NO

-------------
DIPOLE MOMENT
-------------

Method             : SCF
Type of density    : Electron Density
Multiplicity       :   1
Irrep              :   0
Energy             :   -79.8537456531813064 Eh
Basis              : AO
                                X                 Y                 Z
Electronic contribution:      0.000000059       0.000000015       0.000000034
Nuclear contribution   :     -0.000000068      -0.000000015      -0.000000022
                        -----------------------------------------
Total Dipole Moment    :     -0.000000009      -0.000000000       0.000000012
                        -----------------------------------------
Magnitude (a.u.)       :      0.000000015
Magnitude (Debye)      :      0.000000038



--------------------
Rotational spectrum 
--------------------
 
Rotational constants in cm-1:             2.658997             0.662261             0.662253 
Rotational constants in MHz :         79714.715608         19854.071577         19853.852060 

Dipole components along the rotational axes: 
x,y,z [a.u.] :    -0.000000     0.000000    -0.000000 
x,y,z [Debye]:    -0.000000     0.000000    -0.000000 

 

Dipole moment calculation done in   0.0 sec 

Maximum memory used throughout the entire PROP-calculation: 5.7 MB

--------------------------------
SUGGESTED CITATIONS FOR THIS RUN
--------------------------------

Below you find a list of papers that are relevant to this ORCA run
We neither can nor want to force you to cite these papers, but we appreciate if you do
You receive ORCA, which is the product of decades of hard work by many enthusiastic individuals, for free
The only thing we kindly ask in return is that you cite our papers,
We deeply appreciate it, if you show your appreciation for ORCA by not just citing the generic ORCA reference.

Please note that relegating all ORCA citations to the supporting information does *not* help us.
SI sections are not indexed - citations you put there will not count into any citation statistics
But we need these citations in order to attract the funding resources that allow us to do what we are doing

Therefore, if you are a happy ORCA user, please consider citing a few of the papers listed below in the main body of your paper

In addition to the list printed below, the program has created the file methyl.bibtex that contains the list in bibtex format
You can import this file easily into all common literature databanks and citation aid programs


List of essential papers. We consider these as the minimum necessary citations

  1. Neese, F.
     Software update: the ORCA program system, version 6.0
     WIRES Comput. Molec. Sci. 2025 15(1), e70019
     doi.org/10.1002/wcms.7019

List of papers to cite with high priority. The work reported in these papers was absolutely
necessary for this run to complete.
Our perspective: the developers of density functionals and basis sets usually get cited in chemistry papers
Good! But without the algorithms to do something with them, the functionals or basis sets would not do anything.
Hence, in our opinion, the algorithm design and method developments papers are equally worthy of getting cited

  1. Neese, F.
     An improvement of the resolution of the identity approximation for the formation of the Coulomb matrix
     J. Comp. Chem. 2003 24(14), 1740-1747
     doi.org/10.1002/jcc.10318
  2. Grimme, S.; Antony, J.; Ehrlich, S.; Krieg, H.
     A consistent and accurate ab initio parametrization of density functional dispersion correction (DFT-D) for the 94 elements H-Pu
     J. Chem. Phys. 2010 132 , 154104
     doi.org/10.1063/1.3382344
  3. Grimme, S.; Ehrlich, S.; Goerigk, L.
     Effect of the damping function in dispersion corrected density functional theory
     J. Comput. Chem. 2011 32(7), 1456-1465
     doi.org/10.1002/jcc.21759
  4. Neese, F.
     The SHARK Integral Generation and Digestion System
     J. Comp. Chem. 2022 44(3), 381
     doi.org/10.1002/jcc.26942

List of suggested additional citations. These are papers that are important in the 'surrounding' of 
of this run, or papers that preceded the highly important papers. If you like your results we are grateful for a citation.

  1. Neese, F.
     The ORCA program system
     WIRES Comput. Molec. Sci. 2012 2(1), 73-78
     doi.org/10.1002/wcms.81
  2. Neese, F.
     Software update: the ORCA program system, version 4.0
     WIRES Comput. Molec. Sci. 2018 8(1), 1-6
     doi.org/10.1002/wcms.1327
  3. Neese, F.; Wennmohs, F.; Becker, U.; Riplinger, C.
     The ORCA quantum chemistry program package
     J. Chem. Phys. 2020 152(22), 224108
     doi.org/10.1063/5.0004608
  4. Neese, F.
     Software update: The ORCA program system—Version 5.0
     WIRES Comput. Molec. Sci. 2022 12(1), e1606
     doi.org/10.1002/wcms.1606

List of optional additional citations

  1. Neese, F.
     Approximate second-order SCF convergence for spin unrestricted wavefunctions
     Chem. Phys. Lett. 2000 325(1-3), 93-98
     doi.org/10.1016/s0009-2614(00)00662-x

Timings for individual modules:

Sum of individual times          ...       15.137 sec (=   0.252 min)
Startup calculation              ...        1.575 sec (=   0.026 min)  10.4 %
SCF iterations                   ...        7.928 sec (=   0.132 min)  52.4 %
Property calculations            ...        0.600 sec (=   0.010 min)   4.0 %
SCF Gradient evaluation          ...        5.018 sec (=   0.084 min)  33.2 %
Geometry relaxation              ...        0.016 sec (=   0.000 min)   0.1 %
                             ****ORCA TERMINATED NORMALLY****
TOTAL RUN TIME: 0 days 0 hours 0 minutes 16 seconds 296 msec
